s 0.000985000 _19_ MAC  --- 0 AODV 55 [0 ffffffff 13 800] ------- [19:255 -1:255 30 0] [0x2 1 1 [6 0] [19 4]] (REQUEST)
r 0.003577021 _23_ MAC  --- 0 AODV 48 [0 ffffffff 13 800] ------- [19:255 -1:255 30 0] [0x2 1 1 [6 0] [19 4]] (REQUEST)
r 0.003577026 _12_ MAC  --- 0 AODV 48 [0 ffffffff 13 800] ------- [19:255 -1:255 30 0] [0x2 1 1 [6 0] [19 4]] (REQUEST)
r 0.003577035 _22_ MAC  --- 0 AODV 48 [0 ffffffff 13 800] ------- [19:255 -1:255 30 0] [0x2 1 1 [6 0] [19 4]] (REQUEST)
r 0.003577036 _2_ MAC  --- 0 AODV 48 [0 ffffffff 13 800] ------- [19:255 -1:255 30 0] [0x2 1 1 [6 0] [19 4]] (REQUEST)
